86
Ru_SIMes_sulfamide_ArOiPr_iso.log	Energy: -1971185.4474638
Ru         1.37122        0.38862        0.13549
C         -0.55768       -0.05940        0.04973
N         -1.49478        0.92794        0.18108
C         -2.86764        0.40818        0.07312
C         -2.66201       -1.08693        0.33022
N         -1.22875       -1.23939        0.00691
H         -2.81807       -1.32450        1.39045
H         -3.22301        0.55335       -0.95093
C         -0.64006       -2.53227       -0.14628
C         -0.38113       -3.32535        0.98254
C          0.24619       -4.56076        0.78856
C          0.60027       -5.01777       -0.48462
C          0.30723       -4.20786       -1.58844
C         -0.31442       -2.96501       -1.44427
H          0.47171       -5.17509        1.65672
H          0.58035       -4.54582       -2.58495
C         -0.54905       -2.08209       -2.64325
H         -1.58679       -1.73797       -2.69984
H          0.08258       -1.18729       -2.59792
H         -0.31821       -2.62019       -3.56683
C         -0.73297       -2.85594        2.37105
H         -0.21383       -3.45822        3.12201
H         -1.80904       -2.95000        2.56447
H         -0.45435       -1.80817        2.51756
C          1.26124       -6.36170       -0.66921
H          0.51755       -7.13522       -0.90078
H          1.78827       -6.67416        0.23747
H          1.97793       -6.34250       -1.49659
C         -1.22670        2.32196       -0.05153
C         -0.95744        3.17393        1.03330
C         -0.63645        4.51086        0.76200
H         -0.40976        5.17100        1.59597
C         -0.96056        4.15787       -1.58859
C         -1.26820        2.81494       -1.37335
H         -0.97920        4.54189       -2.60590
C         -0.61830        5.01759       -0.53724
C         -1.66887        1.94504       -2.53841
H         -1.27013        2.35069       -3.47174
H         -2.76152        1.90464       -2.63809
H         -1.29747        0.92499       -2.43313
H         -2.01194        3.09417        2.89991
C         -1.07044        2.72860        2.46914
H         -0.25580        3.14355        3.07022
H         -1.03782        1.64523        2.56618
C         -0.23509        6.45137       -0.81016
H         -0.31503        7.06490        0.09231
H         -0.87035        6.89301       -1.58547
H          0.80144        6.51815       -1.16504
Cl         1.57956        1.15733       -2.13008
Cl         1.33638        0.31100        2.54124
C          2.16385       -1.25064       -0.10710
H          1.64707       -2.18004       -0.33000
C          3.59802       -1.36827        0.00579
C          4.36018       -0.20109        0.25578
C          5.74479       -0.26447        0.39224
C          6.37505       -1.50824        0.27562
C          5.64675       -2.67660        0.02511
C          4.26431       -2.60371       -0.10873
H          3.67325       -3.49555       -0.29942
H          6.15781       -3.62959       -0.06349
H          7.45453       -1.55722        0.38144
H          6.33729        0.62092        0.58276
O          3.60163        0.93007        0.35676
H         -4.12064        2.07296        0.65237
H         -3.37965        1.21693        2.01062
N         -5.08179        0.31134        1.28832
C         -3.85007        1.08670        1.03540
H         -5.08420       -0.20602        2.16314
S         -5.80397       -0.57503        0.08661
N         -4.92643       -2.01983        0.07651
O         -7.14161       -0.95861        0.53324
O         -5.62775        0.19347       -1.15164
H         -3.20616       -3.01671       -0.46096
H         -3.57537       -1.66365       -1.54959
C         -3.57357       -1.98916       -0.50214
H         -5.51131       -2.74745       -0.33267
C          4.22672        2.25344        0.44978
H          5.01076        2.17160        1.20872
C          3.15424        3.21270        0.93698
H          2.35965        3.32524        0.19274
H          2.71203        2.86137        1.87240
H          3.60808        4.19466        1.10563
C          4.80627        2.64793       -0.90180
H          5.29416        3.62439       -0.81633
H          5.54832        1.92618       -1.25386
H          4.00276        2.71174       -1.64042
86
Ru_SIMes_sulfamide_ArOiPr_NH12_iso.log	Energy: -1971186.2554262
Ru         1.36954        0.38899        0.13607
C         -0.55946       -0.05862        0.04274
N         -1.49527        0.92892        0.18460
C         -2.87165        0.41582        0.09011
C         -2.66970       -1.09132        0.27444
N         -1.23008       -1.23697       -0.01809
H         -2.85114       -1.38146        1.31787
H         -3.25574        0.61430       -0.91435
C         -0.64175       -2.53138       -0.16311
C         -0.39497       -3.32100        0.97094
C          0.23024       -4.55900        0.78687
C          0.59372       -5.02202       -0.48143
C          0.31399       -4.21477       -1.59060
C         -0.30427       -2.96906       -1.45642
H          0.44648       -5.17073        1.65922
H          0.59580       -4.55673       -2.58331
C         -0.52137       -2.08812       -2.66011
H         -1.55964       -1.74985       -2.73761
H          0.10432       -1.18989       -2.60345
H         -0.27023       -2.62561       -3.57873
C         -0.75548       -2.84589        2.35543
H         -0.23758       -3.44259        3.11169
H         -1.83197       -2.94339        2.54488
H         -0.48139       -1.79660        2.49878
C          1.25136       -6.36901       -0.65518
H          0.50665       -7.14102       -0.88848
H          1.77077       -6.67909        0.25670
H          1.97401       -6.35610       -1.47749
C         -1.22624        2.32180       -0.05599
C         -0.95713        3.18104        1.02315
C         -0.63474        4.51569        0.74283
H         -0.40796        5.18142        1.57229
C         -0.95598        4.14648       -1.60570
C         -1.26509        2.80529       -1.38135
H         -0.97245        4.52317       -2.62579
C         -0.61458        5.01325       -0.56006
C         -1.66416        1.92781       -2.54139
H         -1.25588        2.32217       -3.47539
H         -2.75635        1.89470       -2.64871
H         -1.30156        0.90587       -2.42517
H         -2.02440        3.09211        2.88244
C         -1.07158        2.74486        2.46161
H         -0.27097        3.18315        3.06508
H         -1.01575        1.66323        2.56753
C         -0.22919        6.44460       -0.84254
H         -0.31385        7.06553        0.05442
H         -0.85983        6.88014       -1.62501
H          0.80938        6.50800       -1.19206
Cl         1.58666        1.15738       -2.12885
Cl         1.32703        0.30950        2.54211
C          2.16230       -1.25077       -0.10281
H          1.64607       -2.17981       -0.32851
C          3.59568       -1.36965        0.01829
C          4.35743       -0.20278        0.27096
C          5.74118       -0.26720        0.41537
C          6.37093       -1.51174        0.30433
C          5.64302       -2.67983        0.05140
C          4.26146       -2.60586       -0.09064
H          3.67068       -3.49744       -0.28344
H          6.15369       -3.63342       -0.03271
H          7.44974       -1.56157        0.41648
H          6.33344        0.61792        0.60789
O          3.59926        0.92915        0.36602
H         -4.04577        2.07986        0.80493
H         -3.33026        1.09219        2.08647
N         -5.08173        0.31994        1.31608
C         -3.81900        1.05577        1.11209
H         -5.16417       -0.15016        2.21311
S         -5.80111       -0.57628        0.10753
N         -4.96500       -2.00984       -0.16629
O         -7.09668       -0.99394        0.63815
O         -5.67238        0.21383       -1.11722
H         -3.21161       -2.96510       -0.67320
H         -3.57276       -1.53522       -1.64813
C         -3.57432       -1.93591       -0.63190
H         -5.09723       -2.63453        0.62730
C          4.22506        2.25209        0.46043
H          5.00494        2.17066        1.22368
C          3.15093        3.21311        0.94047
H          2.36051        3.32542        0.19180
H          2.70330        2.86355        1.87398
H          3.60487        4.19484        1.11027
C          4.81222        2.64388       -0.88864
H          5.30078        3.61990       -0.80210
H          5.55531        1.92072       -1.23562
H          4.01274        2.70748       -1.63165
86
Ru_SIMes_sulfamide_ArOiPr_NH12.log	Energy: -1971186.3615004
Ru         1.38291       -0.34209       -0.12336
C         -0.55857        0.00585        0.07059
N         -1.28368        1.14936        0.12405
C         -2.71611        0.91170       -0.14865
C         -2.84998       -0.58408        0.14945
N         -1.45334       -1.02810       -0.00477
H         -3.17544       -0.75082        1.18541
H         -2.89560        1.07782       -1.21558
C         -1.09572       -2.40688        0.18565
C         -1.02730       -2.92098        1.49756
C         -0.62389       -4.24478        1.66902
C         -0.29242       -5.06456        0.58281
C         -0.42329       -4.54178       -0.70390
C         -0.84284       -3.22408       -0.92996
H         -0.55600       -4.64457        2.67809
H         -0.20818       -5.17436       -1.56191
C         -1.07746       -2.76142       -2.34558
H         -2.02465       -3.17157       -2.71980
H         -1.11572       -1.67654       -2.42100
H         -0.28336       -3.11788       -3.00837
C         -1.41024       -2.09169        2.69716
H         -0.94334       -2.48935        3.60187
H         -2.49690       -2.10959        2.85306
H         -1.09829       -1.05205        2.58929
C          0.20028       -6.47343        0.80512
H          0.07690       -7.08640       -0.09290
H         -0.33349       -6.95719        1.63004
H          1.26710       -6.47748        1.06366
C         -0.77369        2.47441        0.27602
C         -0.39683        2.90339        1.56143
C          0.13048        4.19042        1.69787
H          0.44081        4.52838        2.68343
C         -0.11440        4.58766       -0.65993
C         -0.65007        3.30931       -0.84612
H          0.00403        5.23649       -1.52425
C          0.28197        5.04595        0.60047
C         -1.05188        2.83997       -2.22124
H         -0.62833        3.49441       -2.98836
H         -2.14206        2.85342       -2.34772
H         -0.70414        1.81938       -2.40743
H         -1.45023        1.50425        2.84695
C         -0.46824        1.97884        2.75027
H         -0.26253        2.52592        3.67446
H          0.26469        1.16884        2.65797
C          0.83707        6.43788        0.77781
H          1.56799        6.47478        1.59183
H          0.03815        7.14936        1.02413
H          1.32045        6.79326       -0.13752
Cl         1.76883       -1.14709        2.10508
Cl         1.19784       -0.21212       -2.52065
C          2.10041        1.33299        0.10774
H          1.54843        2.23006        0.37676
C          3.51730        1.52856       -0.08694
C          4.32160        0.40736       -0.40671
C          5.68995        0.54525       -0.62628
C          6.26151        1.81835       -0.52376
C          5.49114        2.94253       -0.20597
C          4.12524        2.79508        0.01098
H          3.50241        3.65171        0.25464
H          5.95702        3.91948       -0.13043
H          7.32830        1.92586       -0.69485
H          6.31382       -0.30471       -0.87073
O          3.61659       -0.75970       -0.48560
H         -3.65712        2.82380        0.19595
H         -3.27189        1.93899        1.67350
N         -5.03109        1.34830        0.78196
C         -3.64531        1.83242        0.65418
H         -5.26902        0.95868        1.68977
S         -5.78362        0.50848       -0.44767
N         -5.23089       -1.07584       -0.51359
O         -7.18922        0.40193       -0.06438
O         -5.35593        1.14928       -1.69149
H         -3.66230       -2.39236       -0.71619
H         -3.60905       -1.02358       -1.83262
C         -3.80972       -1.31340       -0.79869
H         -5.58125       -1.59119        0.29205
C          4.29946       -2.04747       -0.64690
H          5.02789       -1.91106       -1.45198
C          3.24717       -3.05146       -1.08629
H          2.51077       -3.22354       -0.29485
H          2.72619       -2.70461       -1.98194
H          3.73927       -4.00383       -1.30909
C          4.98368       -2.43710        0.65624
H          5.51655       -3.38345        0.51736
H          5.70706       -1.68314        0.97832
H          4.23314       -2.55977        1.44175
86
Ru_SIMes_sulfamide_ArOiPr_NH2_iso.log	Energy: -1971185.7639356
Ru         1.36767        0.39254        0.13565
C         -0.55932       -0.06518        0.05296
N         -1.50064        0.91826        0.18560
C         -2.87270        0.39563        0.07706
C         -2.66097       -1.10241        0.32359
N         -1.22430       -1.24748        0.01024
H         -2.82315       -1.34362        1.38203
H         -3.22925        0.54680       -0.94552
C         -0.63099       -2.53869       -0.14066
C         -0.37082       -3.32860        0.99002
C          0.25972       -4.56294        0.79922
C          0.61587       -5.02192       -0.47260
C          0.32219       -4.21485       -1.57835
C         -0.30243       -2.97315       -1.43743
H          0.48606       -5.17479        1.66892
H          0.59745       -4.55406       -2.57386
C         -0.53694       -2.09316       -2.63856
H         -1.57764       -1.75965       -2.70388
H          0.08524       -1.19205       -2.58933
H         -0.29401       -2.62957       -3.56001
C         -0.72439       -2.85704        2.37741
H         -0.20309       -3.45568        3.12979
H         -1.80009       -2.95441        2.57129
H         -0.44951       -1.80796        2.52144
C          1.27999       -6.36476       -0.65388
H          0.53855       -7.13988       -0.88722
H          1.80468       -6.67542        0.25478
H          1.99940       -6.34491       -1.47891
C         -1.23654        2.31305       -0.04734
C         -0.96588        3.16628        1.03625
C         -0.64929        4.50399        0.76320
H         -0.42150        5.16495        1.59623
C         -0.97931        4.14918       -1.58614
C         -1.28269        2.80563       -1.36937
H         -1.00151        4.53259       -2.60361
C         -0.63651        5.01036       -0.53611
C         -1.68296        1.93435       -2.53361
H         -1.28457        2.33953       -3.46727
H         -2.77558        1.89308       -2.63342
H         -1.31072        0.91464       -2.42772
H         -2.00545        3.09499        2.91151
C         -1.07027        2.72246        2.47323
H         -0.24748        3.13180        3.06701
H         -1.04445        1.63901        2.57064
C         -0.25804        6.44505       -0.81075
H         -0.33395        7.05805        0.09242
H         -0.89883        6.88561       -1.58212
H          0.77619        6.51416       -1.17182
Cl         1.56819        1.16044       -2.13103
Cl         1.33877        0.31540        2.54142
C          2.16735       -1.24330       -0.10677
H          1.65438       -2.17526       -0.32786
C          3.60217       -1.35452        0.00427
C          4.35969       -0.18383        0.25209
C          5.74474       -0.24130        0.38677
C          6.38010       -1.48252        0.27065
C          5.65644       -2.65421        0.02231
C          4.27354       -2.58724       -0.10983
H          3.68598       -3.48175       -0.29883
H          6.17138       -3.60513       -0.06594
H          7.45992       -1.52682        0.37512
H          6.33382        0.64673        0.57558
O          3.59659        0.94429        0.35286
H         -4.12601        2.05705        0.65083
H         -3.35181        1.21565        2.01025
N         -5.02321        0.23271        1.31557
C         -3.84393        1.07523        1.04596
H         -5.72546        0.68622        1.89583
S         -5.79108       -0.59310        0.06996
N         -4.96130       -2.04170       -0.06106
O         -7.12219       -0.91300        0.58257
O         -5.61598        0.09223       -1.21481
H         -3.20792       -3.02464       -0.51674
H         -3.57090       -1.65228       -1.56986
C         -3.56851       -1.99416       -0.53270
H         -5.06369       -2.55515        0.81359
C          4.21656        2.27026        0.44328
H          5.00244        2.19240        1.20073
C          3.14134        3.22591        0.93156
H          2.34436        3.33351        0.18919
H          2.70300        2.87441        1.86875
H          3.59143        4.21010        1.09723
C          4.79178        2.66544       -0.90993
H          5.27596        3.64393       -0.82669
H          5.53597        1.94618       -1.26263
H          3.98647        2.72510       -1.64695
86
Ru_SIMes_sulfamide_ArOiPr_NH2.log	Energy: -1971186.0514793
Ru         1.38188       -0.33496       -0.11926
C         -0.56095       -0.00129        0.08480
N         -1.29465        1.13690        0.14348
C         -2.72314        0.88877       -0.13707
C         -2.84688       -0.60659        0.17522
N         -1.44812       -1.04131        0.01052
H         -3.16324       -0.76207        1.21498
H         -2.89394        1.04037       -1.20724
C         -1.07875       -2.41731        0.19853
C         -0.99845       -2.93162        1.50961
C         -0.58307       -4.25221        1.67773
C         -0.25108       -5.06839        0.58903
C         -0.39414       -4.54595       -0.69659
C         -0.82603       -3.23169       -0.91917
H         -0.50594       -4.65209        2.68610
H         -0.17894       -5.17622       -1.55627
C         -1.07428       -2.76992       -2.33275
H         -2.02468       -3.18107       -2.69768
H         -1.11438       -1.68508       -2.40828
H         -0.28622       -3.12615       -3.00283
C         -1.38183       -2.10655        2.71194
H         -0.90735       -2.50149        3.61390
H         -2.46752       -2.13313        2.87293
H         -1.07870       -1.06436        2.60367
C          0.25518       -6.47307        0.80739
H          0.12888       -7.08741       -0.08930
H         -0.26718       -6.96089        1.63721
H          1.32428       -6.46822        1.05633
C         -0.79394        2.46541        0.29407
C         -0.41608        2.89572        1.57868
C          0.10389        4.18581        1.71466
H          0.41502        4.52494        2.69956
C         -0.15133        4.58364       -0.64204
C         -0.67953        3.30217       -0.82773
H         -0.03996        5.23409       -1.50608
C          0.24664        5.04311        0.61747
C         -1.08332        2.83189       -2.20195
H         -0.66811        3.49084       -2.96974
H         -2.17413        2.83700       -2.32378
H         -0.72834        1.81436       -2.39136
H         -1.46037        1.49048        2.86320
C         -0.48055        1.96967        2.76673
H         -0.27646        2.51688        3.69120
H          0.25652        1.16363        2.67263
C          0.79388        6.43825        0.79401
H          1.52629        6.47929        1.60648
H         -0.00871        7.14496        1.04211
H          1.27322        6.79667       -0.12228
Cl         1.78697       -1.13849        2.10641
Cl         1.18353       -0.20413       -2.51558
C          2.08888        1.34489        0.10922
H          1.53288        2.23719        0.38601
C          3.50253        1.55075       -0.09840
C          4.31192        0.43524       -0.42542
C          5.67698        0.58293       -0.65845
C          6.24017        1.86027       -0.56249
C          5.46474        2.97899       -0.23780
C          4.10218        2.82169       -0.00709
H          3.47556        3.67396        0.24207
H          5.92413        3.95940       -0.16765
H          7.30437        1.97551       -0.74430
H          6.30455       -0.26267       -0.90854
O          3.61472       -0.73697       -0.49680
H         -3.71501        2.78486        0.15501
H         -3.26755        1.95853        1.65870
N         -4.99245        1.20623        0.82391
C         -3.65975        1.80983        0.65040
H         -5.65364        1.81666        1.29948
S         -5.76396        0.48329       -0.48525
N         -5.23153       -1.10279       -0.47223
O         -7.18266        0.45701       -0.13401
O         -5.30344        1.05781       -1.75347
H         -3.66596       -2.42814       -0.65689
H         -3.61348       -1.07993       -1.79845
C         -3.80913       -1.35024       -0.75873
H         -5.54207       -1.54292        0.39319
C          4.30459       -2.02013       -0.66485
H          5.02468       -1.87877       -1.47654
C          3.25495       -3.03111       -1.09466
H          2.52633       -3.20723       -0.29694
H          2.72423       -2.68833       -1.98613
H          3.75119       -3.98052       -1.32088
C          5.00311       -2.40502        0.63206
H          5.54091       -3.34789        0.48864
H          5.72440       -1.64620        0.94743
H          4.26038       -2.53237        1.42425
86
Ru_SIMes_sulfamide_ArOiPr_NH_iso.log	Energy: -1971183.3841624
Ru         1.37096        0.38826        0.13571
C         -0.55880       -0.05611        0.04162
N         -1.49466        0.93322        0.16713
C         -2.86780        0.41571        0.05698
C         -2.66465       -1.07937        0.33003
N         -1.23114       -1.23481        0.00310
H         -2.82141       -1.30131        1.39209
H         -3.21715        0.55038       -0.97063
C         -0.64379       -2.52785       -0.15272
C         -0.38882       -3.32550        0.97369
C          0.23738       -4.56108        0.77674
C          0.59378       -5.01414       -0.49715
C          0.30374       -4.20018       -1.59883
C         -0.31659       -2.95708       -1.45161
H          0.45983       -5.17885        1.64325
H          0.57815       -4.53522       -2.59599
C         -0.54861       -2.07032       -2.64827
H         -1.58522       -1.72250       -2.70329
H          0.08609       -1.17776       -2.60102
H         -0.31998       -2.60682       -3.57333
C         -0.74516       -2.86135        2.36275
H         -0.23081       -3.46833        3.11325
H         -1.82233       -2.95322        2.55079
H         -0.46450       -1.81492        2.51474
C          1.25365       -6.35815       -0.68515
H          0.51026       -7.12906       -0.92618
H          1.77425       -6.67670        0.22311
H          1.97580       -6.33538       -1.50771
C         -1.22571        2.32727       -0.06418
C         -0.95282        3.17852        1.02018
C         -0.63546        4.51656        0.74888
H         -0.40656        5.17601        1.58281
C         -0.96664        4.16509       -1.60070
C         -1.27062        2.82153       -1.38571
H         -0.98835        4.54979       -2.61769
C         -0.62359        5.02493       -0.54949
C         -1.66850        1.95100       -2.55124
H         -1.27260        2.35964       -3.48450
H         -2.76096        1.90510       -2.65043
H         -1.29175        0.93274       -2.44709
H         -1.97917        3.12026        2.90342
C         -1.05398        2.73288        2.45690
H         -0.21992        3.12646        3.04563
H         -1.04527        1.64890        2.55167
C         -0.24619        6.46024       -0.82248
H         -0.30979        7.06930        0.08428
H         -0.89619        6.90524       -1.58360
H          0.78332        6.52951       -1.19667
Cl         1.58586        1.17179       -2.12374
Cl         1.32727        0.29467        2.54060
C          2.16192       -1.25056       -0.11449
H          1.64468       -2.17752       -0.34630
C          3.59536       -1.37161        0.00468
C          4.35848       -0.20739        0.26517
C          5.74223       -0.27426        0.40851
C          6.37066       -1.51864        0.28841
C          5.64139       -2.68412        0.02763
C          4.25981       -2.60769       -0.11320
H          3.66800       -3.49730       -0.31184
H          6.15100       -3.63765       -0.06343
H          7.44948       -1.57036        0.39969
H          6.33547        0.60890        0.60691
O          3.60156        0.92469        0.36845
H         -4.17837        2.05739        0.58584
H         -3.35420        1.29580        1.96393
N         -4.97709        0.21198        1.32463
C         -3.84955        1.10316        1.01092
H         -5.64133        0.57346        2.00381
S         -5.78844       -0.58943        0.10988
N         -4.92717       -2.04627        0.08026
O         -7.12338       -0.91765        0.61063
O         -5.63509        0.13117       -1.16388
H         -3.19114       -3.01511       -0.45829
H         -3.57857       -1.66534       -1.54484
C         -3.57127       -1.99203       -0.49754
H         -5.50973       -2.73045       -0.40339
C          4.22903        2.24604        0.47274
H          5.00926        2.15780        1.23488
C          3.15658        3.20487        0.96081
H          2.36600        3.32417        0.21338
H          2.70892        2.84870        1.89180
H          3.61210        4.18457        1.13802
C          4.81590        2.64745       -0.87362
H          5.30568        3.62220       -0.77992
H          5.55788        1.92605       -1.22656
H          4.01605        2.71776       -1.61567
86
Ru_SIMes_sulfamide_ArOiPr_NH.log	Energy: -1971183.7306606
Ru        -1.38030        0.34191       -0.12102
C          0.56043       -0.00611        0.07672
N          1.28526       -1.15000        0.13262
C          2.71392       -0.91073       -0.14988
C          2.85067        0.58078        0.17676
N          1.45602        1.02710        0.00194
H          3.16323        0.72509        1.21780
H          2.88156       -1.05341       -1.22194
C          1.09524        2.40517        0.19169
C          1.01750        2.91944        1.50295
C          0.60915        4.24222        1.67130
C          0.28227        5.06072        0.58281
C          0.42356        4.53825       -0.70300
C          0.84844        3.22177       -0.92578
H          0.53383        4.64214        2.67979
H          0.21284        5.17023       -1.56253
C          1.09672        2.75934       -2.33913
H          2.05103        3.16398       -2.70120
H          1.12969        1.67432       -2.41511
H          0.31298        3.12181       -3.01094
C          1.39664        2.09238        2.70525
H          0.92467        2.49018        3.60726
H          2.48252        2.11282        2.86554
H          1.08753        1.05194        2.59726
C         -0.21625        6.46809        0.80155
H         -0.08630        7.08204       -0.09489
H          0.30859        6.95271        1.63167
H         -1.28543        6.46906        1.05021
C          0.77680       -2.47546        0.28285
C          0.40061       -2.90531        1.56809
C         -0.12767       -4.19203        1.70385
H         -0.43767       -4.53069        2.68926
C          0.11727       -4.58789       -0.65436
C          0.65350       -3.30974       -0.83983
H         -0.00126       -5.23630       -1.51899
C         -0.27996       -5.04651        0.60573
C          1.05565       -2.83952       -2.21454
H          0.63797       -3.49736       -2.98194
H          2.14621       -2.84605       -2.33824
H          0.70206       -1.82122       -2.40265
H          1.46138       -1.51211        2.85216
C          0.47664       -1.98162        2.75730
H          0.26960       -2.52821        3.68148
H         -0.25287       -1.16842        2.66615
C         -0.83646       -6.43804        0.78189
H         -1.56655       -6.47514        1.59663
H         -0.03812       -7.15080        1.02638
H         -1.32124       -6.79167       -0.13339
Cl        -1.77454        1.14133        2.10816
Cl        -1.18895        0.21647       -2.51834
C         -2.09714       -1.33412        0.10503
H         -1.54554       -2.23083        0.37625
C         -3.51296       -1.53060       -0.09655
C         -4.31687       -0.40935       -0.41731
C         -5.68401       -0.54801       -0.64376
C         -6.25479       -1.82194       -0.54739
C         -5.48483       -2.94618       -0.22883
C         -4.12015       -2.79794       -0.00479
H         -3.49767       -3.65461        0.23961
H         -5.95008       -3.92380       -0.15818
H         -7.32063       -1.93006       -0.72397
H         -6.30754        0.30199       -0.88895
O         -3.61278        0.75865       -0.48985
H          3.74783       -2.79589        0.11403
H          3.25255       -2.01562        1.62822
N          4.95776       -1.18475        0.83914
C          3.65500       -1.83448        0.62975
H          5.61433       -1.71525        1.40609
S          5.76390       -0.50351       -0.45462
N          5.21847        1.09264       -0.34063
O          7.18853       -0.47158       -0.12309
O          5.31301       -1.12177       -1.71152
H          3.66010        2.40917       -0.61686
H          3.62622        1.07101       -1.78354
C          3.81811        1.33484       -0.73635
H          5.86366        1.67111       -0.87961
C         -4.29608        2.04621       -0.65077
H         -5.02074        1.91137       -1.45952
C         -3.24268        3.05231       -1.08262
H         -2.51011        3.22302       -0.28735
H         -2.71722        2.70827       -1.97674
H         -3.73459        4.00483       -1.30522
C         -4.98652        2.43163        0.65032
H         -5.51963        3.37787        0.51165
H         -5.71068        1.67613        0.96706
H         -4.23964        2.55280        1.43955
86